# vtk DataFile Version 3.0
face com carregamento         
ASCII
DATASET UNSTRUCTURED_GRID
POINTS       1377 double
   -0.72943E-01   -0.24354E+00   -0.13920E+00
   -0.31961E-01   -0.23840E+00   -0.23471E+00
   -0.10146E+00   -0.18212E+00   -0.22684E+00
    0.13174E-01   -0.19658E+00   -0.14907E+00
   -0.10168E+00   -0.28878E+00   -0.23089E+00
   -0.13858E-01   -0.29891E+00   -0.11910E+00
   -0.78090E-01   -0.19897E+00   -0.62840E-01
    0.31379E+00   -0.26190E+00   -0.50000E+00
    0.37591E+00   -0.20287E+00   -0.50000E+00
    0.38956E+00   -0.31344E+00   -0.41188E+00
    0.41573E+00   -0.27779E+00   -0.50000E+00
   -0.14939E+00   -0.28376E+00   -0.13724E+00
   -0.42362E+00   -0.11037E+00   -0.13535E+00
   -0.41451E+00   -0.58487E-01   -0.20648E+00
   -0.49299E+00   -0.83425E-01   -0.13983E+00
   -0.50000E+00    0.00000E+00   -0.10000E+00
   -0.92114E-01   -0.29766E+00   -0.52394E-01
    0.43726E-01   -0.30115E+00   -0.23579E+00
    0.39635E-01   -0.18347E+00   -0.22749E+00
    0.23317E-01   -0.17057E+00   -0.30899E+00
   -0.24250E-01   -0.33208E+00   -0.30314E+00
   -0.13378E-01   -0.40914E+00   -0.21523E+00
    0.25622E-01   -0.23898E+00   -0.36904E+00
   -0.77210E-01   -0.23437E+00   -0.35788E+00
   -0.57255E-01   -0.10124E+00   -0.22210E+00
   -0.12728E+00   -0.18891E+00   -0.14511E+00
   -0.18492E+00   -0.25967E+00    0.17096E+00
   -0.22816E+00   -0.24068E+00    0.10719E+00
   -0.19683E+00   -0.35930E+00    0.12386E+00
   -0.27851E+00   -0.32231E+00    0.14566E+00
   -0.12730E+00   -0.28275E+00    0.59324E-01
   -0.10822E+00   -0.19284E+00    0.14978E+00
   -0.14291E+00   -0.28923E+00    0.22957E+00
   -0.21003E+00   -0.34777E+00    0.22191E+00
   -0.98290E-01   -0.30773E+00    0.13907E+00
   -0.17747E+00   -0.16473E+00    0.16269E+00
   -0.25743E+00   -0.18067E+00    0.19742E+00
   -0.20703E+00   -0.14142E+00    0.90133E-01
   -0.17997E+00   -0.17265E+00    0.21934E-01
   -0.15531E+00   -0.89851E-01    0.74836E-01
   -0.23723E+00   -0.10154E+00    0.15057E+00
   -0.13592E+00   -0.18603E+00    0.23021E+00
   -0.16439E+00   -0.80061E-01    0.23278E+00
    0.17615E+00   -0.16762E+00    0.26546E-02
    0.15340E+00   -0.18303E+00   -0.80879E-01
    0.16018E+00   -0.67328E-01   -0.56347E-01
    0.23975E+00   -0.88088E-01   -0.30657E-01
    0.80304E-01   -0.19854E+00   -0.55770E-01
    0.20806E+00   -0.25409E+00   -0.66511E-01
    0.15701E+00   -0.26487E+00    0.53624E-01
    0.12746E+00   -0.28478E+00   -0.54161E-01
    0.11643E+00   -0.78316E-01    0.31539E-02
    0.19467E+00   -0.15295E+00    0.77103E-01
    0.25225E+00   -0.94789E-01    0.44444E-01
    0.28024E+00   -0.18669E+00   -0.43851E-01
    0.23758E+00   -0.21606E+00    0.61381E-01
    0.31303E+00   -0.14461E+00    0.74893E-01
   -0.39722E-01   -0.14130E+00   -0.12596E-01
   -0.10320E+00   -0.14623E+00    0.32639E-01
   -0.46173E-01   -0.21350E+00    0.48496E-01
    0.40052E-01   -0.89404E-01   -0.41552E-01
    0.39489E-03   -0.20664E+00   -0.19350E-01
   -0.63891E-01   -0.99044E-01   -0.73417E-01
   -0.10113E-01   -0.19573E+00    0.24102E+00
   -0.32848E-01   -0.16813E+00    0.31296E+00
   -0.14176E+00   -0.14226E+00    0.30057E+00
   -0.84032E-01   -0.23591E+00    0.27361E+00
   -0.90331E-01   -0.28988E+00    0.39966E+00
   -0.13861E+00   -0.33567E+00    0.30160E+00
   -0.34515E-01   -0.33864E+00    0.36833E+00
   -0.15436E+00   -0.19487E+00    0.36274E+00
   -0.21964E+00   -0.25195E+00    0.27828E+00
   -0.28860E-01   -0.23815E+00    0.36673E+00
    0.12167E+00   -0.30133E+00    0.28446E+00
    0.18405E+00   -0.39409E+00    0.29563E+00
    0.12814E+00   -0.32166E+00    0.36411E+00
    0.11410E+00   -0.42238E+00    0.29645E+00
    0.25322E+00   -0.33092E+00    0.30181E+00
    0.18736E+00   -0.26361E+00    0.23174E+00
    0.19113E+00   -0.26486E+00    0.36770E+00
    0.20001E-01   -0.33167E+00    0.30061E+00
    0.39547E-01   -0.29753E+00    0.21837E+00
    0.12382E+00   -0.38788E+00    0.22271E+00
   -0.43136E-01   -0.24524E+00    0.50000E+00
   -0.54092E-01   -0.19617E+00    0.44018E+00
   -0.14686E+00   -0.24375E+00    0.43154E+00
   -0.15316E+00   -0.32110E+00    0.42837E+00
   -0.89855E-01   -0.42180E+00    0.37118E+00
   -0.16895E+00   -0.39869E+00    0.43112E+00
   -0.23404E-01   -0.30513E+00    0.43843E+00
    0.40839E+00   -0.54700E-01    0.39510E+00
    0.35328E+00    0.00000E+00    0.41911E+00
    0.43443E+00    0.00000E+00    0.43458E+00
    0.41887E+00    0.00000E+00    0.35378E+00
   -0.20555E+00   -0.28080E+00    0.36544E+00
   -0.72912E-01   -0.13254E+00   -0.28876E+00
   -0.29392E-01   -0.57896E-01   -0.30178E+00
    0.15440E-01   -0.75511E-01   -0.23261E+00
    0.10373E+00   -0.29428E+00    0.13404E+00
    0.21516E-01   -0.19728E+00    0.15649E+00
    0.12243E+00   -0.28636E+00    0.19329E+00
    0.12365E-01   -0.30492E+00    0.12307E+00
    0.93618E-01   -0.18270E+00    0.59894E-01
    0.16042E-01   -0.24834E+00    0.39427E-01
    0.10058E+00   -0.29959E+00    0.37710E-01
    0.67250E-01   -0.41847E+00    0.16536E+00
    0.15091E+00   -0.17523E+00    0.14013E+00
    0.19943E+00   -0.25255E+00    0.13014E+00
    0.16992E+00   -0.37043E+00    0.12552E+00
    0.92770E-01   -0.39052E+00    0.51897E-01
    0.24883E+00   -0.35816E+00    0.38244E+00
    0.27833E+00   -0.41537E+00    0.31710E+00
    0.23575E+00   -0.44093E+00    0.40955E+00
    0.18923E+00   -0.46281E+00    0.31857E+00
    0.19649E+00   -0.29738E+00   -0.35236E+00
    0.18040E+00   -0.24326E+00   -0.41908E+00
    0.11555E+00   -0.27090E+00   -0.36718E+00
    0.24803E+00   -0.18657E+00   -0.35799E+00
   -0.19653E+00   -0.16132E+00   -0.81913E-01
   -0.25251E+00   -0.84116E-01   -0.66495E-01
   -0.18005E+00   -0.68064E-01   -0.10353E+00
   -0.23200E+00   -0.10589E+00   -0.15122E+00
    0.26084E+00   -0.28967E+00   -0.41126E+00
    0.12466E+00   -0.32878E+00   -0.29964E+00
    0.21881E+00   -0.25395E+00   -0.28682E+00
    0.19234E+00   -0.39409E+00   -0.33796E+00
    0.25113E+00   -0.32464E+00   -0.31209E+00
    0.26105E+00   -0.36657E+00   -0.37914E+00
    0.15253E+00   -0.33818E+00   -0.40948E+00
    0.20866E+00   -0.18622E+00   -0.12928E+00
    0.19407E+00   -0.16214E+00   -0.25739E+00
    0.26241E+00   -0.20498E+00   -0.19675E+00
    0.22165E+00   -0.26873E+00   -0.19811E+00
    0.31611E+00   -0.27250E+00   -0.14013E+00
    0.27402E+00   -0.32834E+00   -0.15771E+00
    0.98867E-01   -0.81749E-01   -0.12883E+00
    0.11741E+00   -0.19065E+00   -0.18590E+00
    0.29399E+00   -0.16521E+00   -0.12465E+00
    0.23393E+00   -0.10449E+00   -0.15611E+00
   -0.32600E-01   -0.33923E+00    0.34147E-01
    0.49659E-01   -0.31681E+00   -0.42348E-01
    0.14393E+00   -0.39394E+00    0.38175E+00
    0.15715E+00   -0.38425E+00    0.50000E+00
    0.14424E+00   -0.47874E+00    0.40988E+00
    0.11040E+00   -0.17348E+00   -0.29299E+00
    0.11783E+00   -0.27970E+00   -0.21393E+00
    0.10854E+00   -0.12442E+00   -0.41767E+00
    0.17178E+00   -0.14093E+00   -0.35287E+00
    0.99497E-01   -0.21199E+00   -0.43137E+00
    0.98033E-01   -0.39141E+00   -0.15843E+00
    0.15133E+00   -0.47655E+00   -0.23527E+00
    0.10886E+00   -0.48801E+00   -0.14406E+00
    0.55063E-01   -0.49696E+00   -0.23479E+00
   -0.13726E+00   -0.75095E-01    0.13753E+00
   -0.48917E-01   -0.10101E+00    0.83337E-01
   -0.11029E+00   -0.65980E-01    0.11395E-01
   -0.17871E-01   -0.59174E-01   -0.19175E-01
   -0.16240E+00   -0.24410E+00   -0.33565E+00
   -0.15096E+00   -0.13948E+00   -0.33878E+00
    0.23265E+00   -0.10445E+00    0.14834E+00
    0.10459E+00   -0.79939E-01    0.12351E+00
    0.10729E+00    0.00000E+00    0.15409E+00
    0.17194E+00   -0.68629E-01    0.94261E-01
   -0.41425E+00   -0.11003E+00   -0.44491E+00
   -0.39087E+00   -0.17966E+00   -0.50000E+00
   -0.44502E+00   -0.22794E+00   -0.40887E+00
   -0.46194E+00   -0.19134E+00   -0.50000E+00
   -0.25135E+00   -0.33070E+00   -0.30755E+00
   -0.18752E+00   -0.26474E+00   -0.23702E+00
   -0.12464E+00   -0.32265E+00   -0.30121E+00
   -0.22698E+00   -0.16080E+00   -0.36369E+00
   -0.12832E+00   -0.19819E+00   -0.43406E+00
   -0.17873E+00   -0.17595E+00   -0.23863E+00
   -0.27400E+00   -0.70045E-01    0.23451E+00
   -0.34828E+00   -0.81481E-01    0.18484E+00
   -0.31382E+00   -0.14225E+00    0.12608E+00
   -0.38409E+00   -0.14243E+00    0.22899E+00
   -0.23787E+00   -0.92090E-01    0.30668E+00
   -0.31002E+00   -0.15804E+00    0.27021E+00
   -0.23734E+00   -0.17912E+00    0.29662E+00
   -0.27557E+00   -0.15653E+00    0.36861E+00
   -0.36341E+00   -0.19423E+00    0.31845E+00
    0.30611E-01   -0.40022E+00    0.44199E+00
    0.45740E-01   -0.41045E+00    0.50000E+00
   -0.21681E-01   -0.33462E+00    0.50000E+00
   -0.38038E-01   -0.42510E+00    0.50000E+00
   -0.41428E+00   -0.12693E+00    0.65444E-01
   -0.49157E+00   -0.91438E-01    0.61226E-01
   -0.46210E+00   -0.19096E+00    0.46519E-01
   -0.47350E+00   -0.16063E+00    0.14013E+00
   -0.28721E+00   -0.27641E+00    0.23058E+00
   -0.35703E+00   -0.22255E+00    0.23036E+00
   -0.30711E+00   -0.25683E+00    0.29926E+00
    0.15592E+00   -0.57387E-01    0.29866E+00
    0.24276E+00    0.00000E+00    0.24843E+00
    0.15485E+00    0.00000E+00    0.24191E+00
    0.20354E+00    0.00000E+00    0.32613E+00
   -0.36516E+00   -0.21231E+00    0.45517E-01
   -0.33213E+00   -0.25363E+00    0.14490E+00
   -0.28036E+00   -0.18875E+00    0.49575E-01
   -0.41781E+00   -0.12762E+00    0.17420E+00
   -0.37061E+00   -0.66104E-01    0.87341E-01
   -0.34084E+00   -0.10216E+00    0.14334E-01
   -0.26004E+00   -0.69051E-01    0.36185E-01
   -0.38979E+00   -0.18580E+00    0.14189E+00
   -0.31948E+00    0.00000E+00    0.10296E+00
    0.22738E+00   -0.34360E+00   -0.50000E+00
    0.27434E+00   -0.21676E+00   -0.43941E+00
    0.19269E+00   -0.17299E+00   -0.43101E+00
    0.11326E+00   -0.17971E+00   -0.50000E+00
[...]
CELL_DATA       184
SCALARS cargas           int       1
LOOKUP_TABLE default
         1
         1
         1
         1
         1
         1
         1
         1
         1
         1
         1
         1
         1
         1
         1
         1
         1
         1
         1
         1
         1
         1
         1
         1
         1
         1
         1
         1
         1
         1
         1
         1
         1
         1
         1
         1
         1
         1
         1
         1
         1
         1
         1
         1
         1
         1
         1
         1
         1
         1
         1
         1
         1
         1
         1
         1
         1
         1
         1
         1
         1
         1
         1
         1
         1
         1
         1
         1
         1
         1
         1
         1
         1
         1
         1
         1
         1
         1
         1
         1
         1
         1
         1
         1
         1
         1
         1
         1
         1
         1
         1
         1
         1
         1
         1
         1
         1
         1
         1
         1
         1
         1
         1
         1
         1
         1
         1
         1
         1
         1
         1
         1
         1
         1
         1
         1
         1
         1
         1
         1
         1
         1
         1
         1
         1
         1
         1
         1
         1
         1
         1
         1
         1
         1
         1
         1
         1
         1
         1
         1
         1
         1
         1
         1
         1
         1
         1
         1
         1
         1
         1
         1
         1
         1
         1
         1
         1
         1
         1
         1
         1
         1
         1
         1
         1
         1
         1
         1
         1
         1
         1
         1
         1
         1
         1
         1
         1
         1
         1
         1
         1
         1
         1
         1
