# vtk DataFile Version 3.0
face com carregamento         
ASCII
DATASET UNSTRUCTURED_GRID
POINTS         44 double
   -0.50000E-01   -0.50000E-01    0.50000E+00
   -0.50000E-01   -0.50000E-01    0.40000E+00
   -0.50000E-01    0.50000E-01    0.40000E+00
   -0.50000E-01    0.50000E-01    0.50000E+00
    0.50000E-01   -0.50000E-01    0.50000E+00
    0.50000E-01   -0.50000E-01    0.40000E+00
    0.50000E-01    0.50000E-01    0.40000E+00
    0.50000E-01    0.50000E-01    0.50000E+00
   -0.50000E-01   -0.50000E-01    0.30000E+00
   -0.50000E-01    0.50000E-01    0.30000E+00
    0.50000E-01   -0.50000E-01    0.30000E+00
    0.50000E-01    0.50000E-01    0.30000E+00
   -0.50000E-01   -0.50000E-01    0.20000E+00
   -0.50000E-01    0.50000E-01    0.20000E+00
    0.50000E-01   -0.50000E-01    0.20000E+00
    0.50000E-01    0.50000E-01    0.20000E+00
   -0.50000E-01   -0.50000E-01    0.10000E+00
   -0.50000E-01    0.50000E-01    0.10000E+00
    0.50000E-01   -0.50000E-01    0.10000E+00
    0.50000E-01    0.50000E-01    0.10000E+00
   -0.50000E-01   -0.50000E-01    0.00000E+00
   -0.50000E-01    0.50000E-01    0.00000E+00
    0.50000E-01   -0.50000E-01    0.00000E+00
    0.50000E-01    0.50000E-01    0.00000E+00
   -0.50000E-01   -0.50000E-01   -0.10000E+00
   -0.50000E-01    0.50000E-01   -0.10000E+00
    0.50000E-01   -0.50000E-01   -0.10000E+00
    0.50000E-01    0.50000E-01   -0.10000E+00
   -0.50000E-01   -0.50000E-01   -0.20000E+00
   -0.50000E-01    0.50000E-01   -0.20000E+00
    0.50000E-01   -0.50000E-01   -0.20000E+00
    0.50000E-01    0.50000E-01   -0.20000E+00
   -0.50000E-01   -0.50000E-01   -0.30000E+00
   -0.50000E-01    0.50000E-01   -0.30000E+00
    0.50000E-01   -0.50000E-01   -0.30000E+00
    0.50000E-01    0.50000E-01   -0.30000E+00
   -0.50000E-01   -0.50000E-01   -0.40000E+00
   -0.50000E-01    0.50000E-01   -0.40000E+00
    0.50000E-01   -0.50000E-01   -0.40000E+00
    0.50000E-01    0.50000E-01   -0.40000E+00
   -0.50000E-01   -0.50000E-01   -0.50000E+00
   -0.50000E-01    0.50000E-01   -0.50000E+00
    0.50000E-01   -0.50000E-01   -0.50000E+00
    0.50000E-01    0.50000E-01   -0.50000E+00
CELLS           1          5
         4         0         4         7         3
CELL_TYPES           1
  9
CELL_DATA         1
SCALARS cargas           int       1
LOOKUP_TABLE default
         1
