# vtk DataFile Version 3.0
Geometria lida                
ASCII
DATASET UNSTRUCTURED_GRID
POINTS         44 double
   -0.50000E-01   -0.50000E-01    0.50000E+00
   -0.50000E-01   -0.50000E-01    0.40000E+00
   -0.50000E-01    0.50000E-01    0.40000E+00
   -0.50000E-01    0.50000E-01    0.50000E+00
    0.50000E-01   -0.50000E-01    0.50000E+00
    0.50000E-01   -0.50000E-01    0.40000E+00
    0.50000E-01    0.50000E-01    0.40000E+00
    0.50000E-01    0.50000E-01    0.50000E+00
   -0.50000E-01   -0.50000E-01    0.30000E+00
   -0.50000E-01    0.50000E-01    0.30000E+00
    0.50000E-01   -0.50000E-01    0.30000E+00
    0.50000E-01    0.50000E-01    0.30000E+00
   -0.50000E-01   -0.50000E-01    0.20000E+00
   -0.50000E-01    0.50000E-01    0.20000E+00
    0.50000E-01   -0.50000E-01    0.20000E+00
    0.50000E-01    0.50000E-01    0.20000E+00
   -0.50000E-01   -0.50000E-01    0.10000E+00
   -0.50000E-01    0.50000E-01    0.10000E+00
    0.50000E-01   -0.50000E-01    0.10000E+00
    0.50000E-01    0.50000E-01    0.10000E+00
   -0.50000E-01   -0.50000E-01    0.00000E+00
   -0.50000E-01    0.50000E-01    0.00000E+00
    0.50000E-01   -0.50000E-01    0.00000E+00
    0.50000E-01    0.50000E-01    0.00000E+00
   -0.50000E-01   -0.50000E-01   -0.10000E+00
   -0.50000E-01    0.50000E-01   -0.10000E+00
    0.50000E-01   -0.50000E-01   -0.10000E+00
    0.50000E-01    0.50000E-01   -0.10000E+00
   -0.50000E-01   -0.50000E-01   -0.20000E+00
   -0.50000E-01    0.50000E-01   -0.20000E+00
    0.50000E-01   -0.50000E-01   -0.20000E+00
    0.50000E-01    0.50000E-01   -0.20000E+00
   -0.50000E-01   -0.50000E-01   -0.30000E+00
   -0.50000E-01    0.50000E-01   -0.30000E+00
    0.50000E-01   -0.50000E-01   -0.30000E+00
    0.50000E-01    0.50000E-01   -0.30000E+00
   -0.50000E-01   -0.50000E-01   -0.40000E+00
   -0.50000E-01    0.50000E-01   -0.40000E+00
    0.50000E-01   -0.50000E-01   -0.40000E+00
    0.50000E-01    0.50000E-01   -0.40000E+00
   -0.50000E-01   -0.50000E-01   -0.50000E+00
   -0.50000E-01    0.50000E-01   -0.50000E+00
    0.50000E-01   -0.50000E-01   -0.50000E+00
    0.50000E-01    0.50000E-01   -0.50000E+00
CELLS         10        90
         8         0         4         7         3         1         5         6         2
         8         1         5         6         2         8        10        11         9
         8         8        10        11         9        12        14        15        13
         8        12        14        15        13        16        18        19        17
         8        16        18        19        17        20        22        23        21
         8        20        22        23        21        24        26        27        25
         8        24        26        27        25        28        30        31        29
         8        28        30        31        29        32        34        35        33
         8        32        34        35        33        36        38        39        37
         8        36        38        39        37        40        42        43        41
CELL_TYPES         10
 12
 12
 12
 12
 12
 12
 12
 12
 12
 12
POINT_DATA        44
SCALARS noIdG            int       1
LOOKUP_TABLE default
         1
         2
         3
         4
         5
         6
         7
         8
         9
        10
        11
        12
        13
        14
        15
        16
        17
        18
        19
        20
        21
        22
        23
        24
        25
        26
        27
        28
        29
        30
        31
        32
        33
        34
        35
        36
        37
        38
        39
        40
        41
        42
        43
        44
SCALARS initialpres      double    1
LOOKUP_TABLE default
   0.00000E+000
   0.10000E-002
   0.10000E-002
   0.00000E+000
   0.00000E+000
   0.10000E-002
   0.10000E-002
   0.00000E+000
   0.20000E-002
   0.20000E-002
   0.20000E-002
   0.20000E-002
   0.30000E-002
   0.30000E-002
   0.30000E-002
   0.30000E-002
   0.40000E-002
   0.40000E-002
   0.40000E-002
   0.40000E-002
   0.50000E-002
   0.50000E-002
   0.50000E-002
   0.50000E-002
   0.60000E-002
   0.60000E-002
   0.60000E-002
   0.60000E-002
   0.70000E-002
   0.70000E-002
   0.70000E-002
   0.70000E-002
   0.80000E-002
   0.80000E-002
   0.80000E-002
   0.80000E-002
   0.90000E-002
   0.90000E-002
   0.90000E-002
   0.90000E-002
   0.10000E-001
   0.10000E-001
   0.10000E-001
   0.10000E-001
SCALARS constrainpmec    int       4
LOOKUP_TABLE default
         1         1         0         1
         1         1         0         0
         1         1         0         0
         1         1         0         1
         1         1         0         1
         1         1         0         0
         1         1         0         0
         1         1         0         1
         1         1         0         0
         1         1         0         0
         1         1         0         0
         1         1         0         0
         1         1         0         0
         1         1         0         0
         1         1         0         0
         1         1         0         0
         1         1         0         0
         1         1         0         0
         1         1         0         0
         1         1         0         0
         1         1         0         0
         1         1         0         0
         1         1         0         0
         1         1         0         0
         1         1         0         0
         1         1         0         0
         1         1         0         0
         1         1         0         0
         1         1         0         0
         1         1         0         0
         1         1         0         0
         1         1         0         0
         1         1         0         0
         1         1         0         0
         1         1         0         0
         1         1         0         0
         1         1         0         0
         1         1         0         0
         1         1         0         0
         1         1         0         0
         1         1         1         0
         1         1         1         0
         1         1         1         0
         1         1         1         0
CELL_DATA        10
 SCALARS mat            int           1
LOOKUP_TABLE default
         1
         1
         1
         1
         1
         1
         1
         1
         1
         1
SCALARS elIdG            int       1
LOOKUP_TABLE default
         1
         2
         3
         4
         5
         6
         7
         8
         9
        10
 SCALARS elmtloads      int           7
LOOKUP_TABLE default
         1         0         0         0         0         0         0
         0         0         0         0         0         0         0
         0         0         0         0         0         0         0
         0         0         0         0         0         0         0
         0         0         0         0         0         0         0
         0         0         0         0         0         0         0
         0         0         0         0         0         0         0
         0         0         0         0         0         0         0
         0         0         0         0         0         0         0
         0         0         0         0         0         0         0
