# vtk DataFile Version 3.0
face com carregamento         
ASCII
DATASET UNSTRUCTURED_GRID
POINTS       1331 double
    0.50000E+00    0.50000E+00   -0.50000E+00
    0.50000E+00    0.40000E+00   -0.50000E+00
    0.50000E+00    0.30000E+00   -0.50000E+00
    0.50000E+00    0.20000E+00   -0.50000E+00
    0.50000E+00    0.10000E+00   -0.50000E+00
    0.50000E+00    0.00000E+00   -0.50000E+00
    0.50000E+00   -0.10000E+00   -0.50000E+00
    0.50000E+00   -0.20000E+00   -0.50000E+00
    0.50000E+00   -0.30000E+00   -0.50000E+00
    0.50000E+00   -0.40000E+00   -0.50000E+00
    0.50000E+00   -0.50000E+00   -0.50000E+00
    0.40000E+00    0.50000E+00   -0.50000E+00
    0.40000E+00    0.40000E+00   -0.50000E+00
    0.40000E+00    0.30000E+00   -0.50000E+00
    0.40000E+00    0.20000E+00   -0.50000E+00
    0.40000E+00    0.10000E+00   -0.50000E+00
    0.40000E+00    0.00000E+00   -0.50000E+00
    0.40000E+00   -0.10000E+00   -0.50000E+00
    0.40000E+00   -0.20000E+00   -0.50000E+00
    0.40000E+00   -0.30000E+00   -0.50000E+00
    0.40000E+00   -0.40000E+00   -0.50000E+00
    0.40000E+00   -0.50000E+00   -0.50000E+00
    0.30000E+00    0.50000E+00   -0.50000E+00
    0.30000E+00    0.40000E+00   -0.50000E+00
    0.30000E+00    0.30000E+00   -0.50000E+00
    0.30000E+00    0.20000E+00   -0.50000E+00
    0.30000E+00    0.10000E+00   -0.50000E+00
    0.30000E+00    0.00000E+00   -0.50000E+00
    0.30000E+00   -0.10000E+00   -0.50000E+00
    0.30000E+00   -0.20000E+00   -0.50000E+00
    0.30000E+00   -0.30000E+00   -0.50000E+00
    0.30000E+00   -0.40000E+00   -0.50000E+00
    0.30000E+00   -0.50000E+00   -0.50000E+00
    0.20000E+00    0.50000E+00   -0.50000E+00
    0.20000E+00    0.40000E+00   -0.50000E+00
    0.20000E+00    0.30000E+00   -0.50000E+00
    0.20000E+00    0.20000E+00   -0.50000E+00
    0.20000E+00    0.10000E+00   -0.50000E+00
    0.20000E+00    0.00000E+00   -0.50000E+00
    0.20000E+00   -0.10000E+00   -0.50000E+00
    0.20000E+00   -0.20000E+00   -0.50000E+00
    0.20000E+00   -0.30000E+00   -0.50000E+00
    0.20000E+00   -0.40000E+00   -0.50000E+00
    0.20000E+00   -0.50000E+00   -0.50000E+00
    0.10000E+00    0.50000E+00   -0.50000E+00
    0.10000E+00    0.40000E+00   -0.50000E+00
    0.10000E+00    0.30000E+00   -0.50000E+00
    0.10000E+00    0.20000E+00   -0.50000E+00
    0.10000E+00    0.10000E+00   -0.50000E+00
    0.10000E+00    0.00000E+00   -0.50000E+00
    0.10000E+00   -0.10000E+00   -0.50000E+00
    0.10000E+00   -0.20000E+00   -0.50000E+00
    0.10000E+00   -0.30000E+00   -0.50000E+00
    0.10000E+00   -0.40000E+00   -0.50000E+00
    0.10000E+00   -0.50000E+00   -0.50000E+00
    0.00000E+00    0.50000E+00   -0.50000E+00
    0.00000E+00    0.40000E+00   -0.50000E+00
    0.00000E+00    0.30000E+00   -0.50000E+00
    0.00000E+00    0.20000E+00   -0.50000E+00
    0.00000E+00    0.10000E+00   -0.50000E+00
    0.00000E+00    0.00000E+00   -0.50000E+00
    0.00000E+00   -0.10000E+00   -0.50000E+00
    0.00000E+00   -0.20000E+00   -0.50000E+00
    0.00000E+00   -0.30000E+00   -0.50000E+00
    0.00000E+00   -0.40000E+00   -0.50000E+00
    0.00000E+00   -0.50000E+00   -0.50000E+00
   -0.10000E+00    0.50000E+00   -0.50000E+00
   -0.10000E+00    0.40000E+00   -0.50000E+00
   -0.10000E+00    0.30000E+00   -0.50000E+00
   -0.10000E+00    0.20000E+00   -0.50000E+00
   -0.10000E+00    0.10000E+00   -0.50000E+00
   -0.10000E+00    0.00000E+00   -0.50000E+00
   -0.10000E+00   -0.10000E+00   -0.50000E+00
   -0.10000E+00   -0.20000E+00   -0.50000E+00
   -0.10000E+00   -0.30000E+00   -0.50000E+00
   -0.10000E+00   -0.40000E+00   -0.50000E+00
   -0.10000E+00   -0.50000E+00   -0.50000E+00
   -0.20000E+00    0.50000E+00   -0.50000E+00
   -0.20000E+00    0.40000E+00   -0.50000E+00
   -0.20000E+00    0.30000E+00   -0.50000E+00
   -0.20000E+00    0.20000E+00   -0.50000E+00
   -0.20000E+00    0.10000E+00   -0.50000E+00
   -0.20000E+00    0.00000E+00   -0.50000E+00
   -0.20000E+00   -0.10000E+00   -0.50000E+00
   -0.20000E+00   -0.20000E+00   -0.50000E+00
   -0.20000E+00   -0.30000E+00   -0.50000E+00
   -0.20000E+00   -0.40000E+00   -0.50000E+00
   -0.20000E+00   -0.50000E+00   -0.50000E+00
   -0.30000E+00    0.50000E+00   -0.50000E+00
   -0.30000E+00    0.40000E+00   -0.50000E+00
   -0.30000E+00    0.30000E+00   -0.50000E+00
   -0.30000E+00    0.20000E+00   -0.50000E+00
   -0.30000E+00    0.10000E+00   -0.50000E+00
   -0.30000E+00    0.00000E+00   -0.50000E+00
   -0.30000E+00   -0.10000E+00   -0.50000E+00
   -0.30000E+00   -0.20000E+00   -0.50000E+00
   -0.30000E+00   -0.30000E+00   -0.50000E+00
   -0.30000E+00   -0.40000E+00   -0.50000E+00
   -0.30000E+00   -0.50000E+00   -0.50000E+00
   -0.40000E+00    0.50000E+00   -0.50000E+00
   -0.40000E+00    0.40000E+00   -0.50000E+00
   -0.40000E+00    0.30000E+00   -0.50000E+00
   -0.40000E+00    0.20000E+00   -0.50000E+00
   -0.40000E+00    0.10000E+00   -0.50000E+00
   -0.40000E+00    0.00000E+00   -0.50000E+00
   -0.40000E+00   -0.10000E+00   -0.50000E+00
   -0.40000E+00   -0.20000E+00   -0.50000E+00
   -0.40000E+00   -0.30000E+00   -0.50000E+00
   -0.40000E+00   -0.40000E+00   -0.50000E+00
   -0.40000E+00   -0.50000E+00   -0.50000E+00
   -0.50000E+00    0.50000E+00   -0.50000E+00
   -0.50000E+00    0.40000E+00   -0.50000E+00
   -0.50000E+00    0.30000E+00   -0.50000E+00
   -0.50000E+00    0.20000E+00   -0.50000E+00
   -0.50000E+00    0.10000E+00   -0.50000E+00
   -0.50000E+00    0.00000E+00   -0.50000E+00
   -0.50000E+00   -0.10000E+00   -0.50000E+00
   -0.50000E+00   -0.20000E+00   -0.50000E+00
   -0.50000E+00   -0.30000E+00   -0.50000E+00
   -0.50000E+00   -0.40000E+00   -0.50000E+00
   -0.50000E+00   -0.50000E+00   -0.50000E+00
    0.50000E+00    0.50000E+00   -0.40000E+00
    0.50000E+00    0.40000E+00   -0.40000E+00
    0.50000E+00    0.30000E+00   -0.40000E+00
    0.50000E+00    0.20000E+00   -0.40000E+00
    0.50000E+00    0.10000E+00   -0.40000E+00
    0.50000E+00    0.00000E+00   -0.40000E+00
    0.50000E+00   -0.10000E+00   -0.40000E+00
    0.50000E+00   -0.20000E+00   -0.40000E+00
    0.50000E+00   -0.30000E+00   -0.40000E+00
    0.50000E+00   -0.40000E+00   -0.40000E+00
    0.50000E+00   -0.50000E+00   -0.40000E+00
    0.40000E+00    0.50000E+00   -0.40000E+00
    0.40000E+00    0.40000E+00   -0.40000E+00
    0.40000E+00    0.30000E+00   -0.40000E+00
    0.40000E+00    0.20000E+00   -0.40000E+00
    0.40000E+00    0.10000E+00   -0.40000E+00
    0.40000E+00    0.00000E+00   -0.40000E+00
    0.40000E+00   -0.10000E+00   -0.40000E+00
    0.40000E+00   -0.20000E+00   -0.40000E+00
    0.40000E+00   -0.30000E+00   -0.40000E+00
    0.40000E+00   -0.40000E+00   -0.40000E+00
    0.40000E+00   -0.50000E+00   -0.40000E+00
    0.30000E+00    0.50000E+00   -0.40000E+00
    0.30000E+00    0.40000E+00   -0.40000E+00
    0.30000E+00    0.30000E+00   -0.40000E+00
    0.30000E+00    0.20000E+00   -0.40000E+00
    0.30000E+00    0.10000E+00   -0.40000E+00
    0.30000E+00    0.00000E+00   -0.40000E+00
    0.30000E+00   -0.10000E+00   -0.40000E+00
    0.30000E+00   -0.20000E+00   -0.40000E+00
    0.30000E+00   -0.30000E+00   -0.40000E+00
    0.30000E+00   -0.40000E+00   -0.40000E+00
    0.30000E+00   -0.50000E+00   -0.40000E+00
    0.20000E+00    0.50000E+00   -0.40000E+00
    0.20000E+00    0.40000E+00   -0.40000E+00
    0.20000E+00    0.30000E+00   -0.40000E+00
    0.20000E+00    0.20000E+00   -0.40000E+00
    0.20000E+00    0.10000E+00   -0.40000E+00
    0.20000E+00    0.00000E+00   -0.40000E+00
    0.20000E+00   -0.10000E+00   -0.40000E+00
    0.20000E+00   -0.20000E+00   -0.40000E+00
    0.20000E+00   -0.30000E+00   -0.40000E+00
    0.20000E+00   -0.40000E+00   -0.40000E+00
    0.20000E+00   -0.50000E+00   -0.40000E+00
    0.10000E+00    0.50000E+00   -0.40000E+00
    0.10000E+00    0.40000E+00   -0.40000E+00
    0.10000E+00    0.30000E+00   -0.40000E+00
    0.10000E+00    0.20000E+00   -0.40000E+00
    0.10000E+00    0.10000E+00   -0.40000E+00
    0.10000E+00    0.00000E+00   -0.40000E+00
    0.10000E+00   -0.10000E+00   -0.40000E+00
    0.10000E+00   -0.20000E+00   -0.40000E+00
    0.10000E+00   -0.30000E+00   -0.40000E+00
    0.10000E+00   -0.40000E+00   -0.40000E+00
    0.10000E+00   -0.50000E+00   -0.40000E+00
    0.00000E+00    0.50000E+00   -0.40000E+00
    0.00000E+00    0.40000E+00   -0.40000E+00
    0.00000E+00    0.30000E+00   -0.40000E+00
    0.00000E+00    0.20000E+00   -0.40000E+00
    0.00000E+00    0.10000E+00   -0.40000E+00
    0.00000E+00    0.00000E+00   -0.40000E+00
    0.00000E+00   -0.10000E+00   -0.40000E+00
    0.00000E+00   -0.20000E+00   -0.40000E+00
    0.00000E+00   -0.30000E+00   -0.40000E+00
    0.00000E+00   -0.40000E+00   -0.40000E+00
    0.00000E+00   -0.50000E+00   -0.40000E+00
   -0.10000E+00    0.50000E+00   -0.40000E+00
   -0.10000E+00    0.40000E+00   -0.40000E+00
   -0.10000E+00    0.30000E+00   -0.40000E+00
   -0.10000E+00    0.20000E+00   -0.40000E+00
   -0.10000E+00    0.10000E+00   -0.40000E+00
   -0.10000E+00    0.00000E+00   -0.40000E+00
   -0.10000E+00   -0.10000E+00   -0.40000E+00
   -0.10000E+00   -0.20000E+00   -0.40000E+00
   -0.10000E+00   -0.30000E+00   -0.40000E+00
   -0.10000E+00   -0.40000E+00   -0.40000E+00
   -0.10000E+00   -0.50000E+00   -0.40000E+00
   -0.20000E+00    0.50000E+00   -0.40000E+00
   -0.20000E+00    0.40000E+00   -0.40000E+00
   -0.20000E+00    0.30000E+00   -0.40000E+00
   -0.20000E+00    0.20000E+00   -0.40000E+00
   -0.20000E+00    0.10000E+00   -0.40000E+00
   -0.20000E+00    0.00000E+00   -0.40000E+00
   -0.20000E+00   -0.10000E+00   -0.40000E+00
   -0.20000E+00   -0.20000E+00   -0.40000E+00
   -0.20000E+00   -0.30000E+00   -0.40000E+00
   -0.20000E+00   -0.40000E+00   -0.40000E+00
   -0.20000E+00   -0.50000E+00   -0.40000E+00
   -0.30000E+00    0.50000E+00   -0.40000E+00
[...]
CELL_DATA       100
SCALARS cargas           int       1
LOOKUP_TABLE default
         1
         1
         1
         1
         1
         1
         1
         1
         1
         1
         1
         1
         1
         1
         1
         1
         1
         1
         1
         1
         1
         1
         1
         1
         1
         1
         1
         1
         1
         1
         1
         1
         1
         1
         1
         1
         1
         1
         1
         1
         1
         1
         1
         1
         1
         1
         1
         1
         1
         1
         1
         1
         1
         1
         1
         1
         1
         1
         1
         1
         1
         1
         1
         1
         1
         1
         1
         1
         1
         1
         1
         1
         1
         1
         1
         1
         1
         1
         1
         1
         1
         1
         1
         1
         1
         1
         1
         1
         1
         1
         1
         1
         1
         1
         1
         1
         1
         1
         1
         1
