# vtk DataFile Version 3.0
face com carregamento         
ASCII
DATASET UNSTRUCTURED_GRID
POINTS       1199 double
   -0.50000E+00    0.00000E+00    0.40000E+00
   -0.49039E+00   -0.97545E-01    0.40000E+00
   -0.38613E+00   -0.80347E-01    0.40000E+00
   -0.40000E+00    0.00000E+00    0.40000E+00
   -0.50000E+00    0.00000E+00    0.50000E+00
   -0.49039E+00   -0.97545E-01    0.50000E+00
   -0.38615E+00   -0.80343E-01    0.50000E+00
   -0.40000E+00    0.00000E+00    0.50000E+00
   -0.46194E+00   -0.19134E+00    0.40000E+00
   -0.34994E+00   -0.15622E+00    0.40000E+00
   -0.46194E+00   -0.19134E+00    0.50000E+00
   -0.35004E+00   -0.15621E+00    0.50000E+00
   -0.41573E+00   -0.27779E+00    0.40000E+00
   -0.31182E+00   -0.23770E+00    0.40000E+00
   -0.41573E+00   -0.27779E+00    0.50000E+00
   -0.31184E+00   -0.23769E+00    0.50000E+00
   -0.35355E+00   -0.35355E+00    0.40000E+00
   -0.27377E+00   -0.31225E+00    0.40000E+00
   -0.35355E+00   -0.35355E+00    0.50000E+00
   -0.27380E+00   -0.31225E+00    0.50000E+00
   -0.27779E+00   -0.41573E+00    0.40000E+00
   -0.24354E+00   -0.36874E+00    0.40000E+00
   -0.27779E+00   -0.41573E+00    0.50000E+00
   -0.24355E+00   -0.36874E+00    0.50000E+00
   -0.19134E+00   -0.46194E+00    0.40000E+00
   -0.17909E+00   -0.37818E+00    0.40000E+00
   -0.19134E+00   -0.46194E+00    0.50000E+00
   -0.17906E+00   -0.37822E+00    0.50000E+00
   -0.97545E-01   -0.49039E+00    0.40000E+00
   -0.94986E-01   -0.38878E+00    0.40000E+00
   -0.97545E-01   -0.49039E+00    0.50000E+00
   -0.94962E-01   -0.38889E+00    0.50000E+00
    0.30616E-16   -0.50000E+00    0.40000E+00
   -0.35867E-02   -0.39179E+00    0.40000E+00
   -0.91849E-16   -0.50000E+00    0.50000E+00
   -0.35675E-02   -0.39195E+00    0.50000E+00
    0.97545E-01   -0.49039E+00    0.40000E+00
    0.88335E-01   -0.38353E+00    0.40000E+00
    0.97545E-01   -0.49039E+00    0.50000E+00
    0.88283E-01   -0.38377E+00    0.50000E+00
    0.19134E+00   -0.46194E+00    0.40000E+00
    0.17741E+00   -0.36227E+00    0.40000E+00
    0.19134E+00   -0.46194E+00    0.50000E+00
    0.17740E+00   -0.36233E+00    0.50000E+00
    0.27779E+00   -0.41573E+00    0.40000E+00
    0.25667E+00   -0.33637E+00    0.40000E+00
    0.27779E+00   -0.41573E+00    0.50000E+00
    0.25666E+00   -0.33641E+00    0.50000E+00
    0.35355E+00   -0.35355E+00    0.40000E+00
    0.31565E+00   -0.31571E+00    0.40000E+00
    0.35355E+00   -0.35355E+00    0.50000E+00
    0.31568E+00   -0.31571E+00    0.50000E+00
    0.41573E+00   -0.27779E+00    0.40000E+00
    0.33595E+00   -0.25733E+00    0.40000E+00
    0.41573E+00   -0.27779E+00    0.50000E+00
    0.33599E+00   -0.25733E+00    0.50000E+00
    0.46194E+00   -0.19134E+00    0.40000E+00
    0.36203E+00   -0.17936E+00    0.40000E+00
    0.46194E+00   -0.19134E+00    0.50000E+00
    0.36204E+00   -0.17936E+00    0.50000E+00
    0.49039E+00   -0.97545E-01    0.40000E+00
    0.38488E+00   -0.91797E-01    0.40000E+00
    0.49039E+00   -0.97545E-01    0.50000E+00
    0.38496E+00   -0.91790E-01    0.50000E+00
    0.50000E+00    0.00000E+00    0.40000E+00
    0.40000E+00    0.00000E+00    0.40000E+00
    0.50000E+00    0.00000E+00    0.50000E+00
    0.40000E+00    0.00000E+00    0.50000E+00
    0.30000E+00    0.00000E+00    0.40000E+00
    0.28662E+00   -0.90264E-01    0.40000E+00
    0.30000E+00    0.00000E+00    0.50000E+00
    0.28671E+00   -0.90258E-01    0.50000E+00
    0.20000E+00    0.00000E+00    0.40000E+00
    0.18907E+00   -0.92278E-01    0.40000E+00
    0.20000E+00    0.00000E+00    0.50000E+00
    0.18910E+00   -0.92322E-01    0.50000E+00
    0.10000E+00    0.00000E+00    0.40000E+00
    0.90683E-01   -0.95225E-01    0.40000E+00
    0.10000E+00    0.00000E+00    0.50000E+00
    0.90634E-01   -0.95266E-01    0.50000E+00
    0.00000E+00    0.00000E+00    0.40000E+00
   -0.96648E-02   -0.97915E-01    0.40000E+00
    0.00000E+00    0.00000E+00    0.50000E+00
   -0.98057E-02   -0.97949E-01    0.50000E+00
   -0.10000E+00    0.00000E+00    0.40000E+00
   -0.11358E+00   -0.10093E+00    0.40000E+00
   -0.10000E+00    0.00000E+00    0.50000E+00
   -0.11371E+00   -0.10090E+00    0.50000E+00
   -0.20000E+00    0.00000E+00    0.40000E+00
   -0.23528E+00   -0.10876E+00    0.40000E+00
   -0.20000E+00    0.00000E+00    0.50000E+00
   -0.23530E+00   -0.10876E+00    0.50000E+00
   -0.30000E+00    0.00000E+00    0.40000E+00
   -0.30759E+00   -0.63250E-01    0.40000E+00
   -0.30000E+00    0.00000E+00    0.50000E+00
   -0.30765E+00   -0.63273E-01    0.50000E+00
   -0.21277E+00   -0.21025E+00    0.40000E+00
   -0.21288E+00   -0.21022E+00    0.50000E+00
   -0.19119E+00   -0.29816E+00    0.40000E+00
   -0.19121E+00   -0.29816E+00    0.50000E+00
   -0.10147E+00   -0.29493E+00    0.40000E+00
   -0.10152E+00   -0.29499E+00    0.50000E+00
   -0.81757E-02   -0.29249E+00    0.40000E+00
   -0.82045E-02   -0.29262E+00    0.50000E+00
    0.84613E-01   -0.28544E+00    0.40000E+00
    0.84565E-01   -0.28563E+00    0.50000E+00
    0.17450E+00   -0.27277E+00    0.40000E+00
    0.17446E+00   -0.27291E+00    0.50000E+00
    0.25889E+00   -0.25996E+00    0.40000E+00
    0.25890E+00   -0.25999E+00    0.50000E+00
    0.27149E+00   -0.17785E+00    0.40000E+00
    0.27156E+00   -0.17788E+00    0.50000E+00
    0.17981E+00   -0.18289E+00    0.40000E+00
    0.17982E+00   -0.18294E+00    0.50000E+00
    0.85631E-01   -0.19007E+00    0.40000E+00
    0.85592E-01   -0.19020E+00    0.50000E+00
   -0.11245E-01   -0.19505E+00    0.40000E+00
   -0.11353E-01   -0.19512E+00    0.50000E+00
   -0.11028E+00   -0.19978E+00    0.40000E+00
   -0.11043E+00   -0.19975E+00    0.50000E+00
   -0.50000E+00    0.00000E+00    0.30000E+00
   -0.49039E+00   -0.97545E-01    0.30000E+00
   -0.38611E+00   -0.80351E-01    0.30000E+00
   -0.40000E+00    0.00000E+00    0.30000E+00
   -0.46194E+00   -0.19134E+00    0.30000E+00
   -0.34984E+00   -0.15623E+00    0.30000E+00
   -0.41573E+00   -0.27779E+00    0.30000E+00
   -0.31179E+00   -0.23770E+00    0.30000E+00
   -0.35355E+00   -0.35355E+00    0.30000E+00
   -0.27373E+00   -0.31226E+00    0.30000E+00
   -0.27779E+00   -0.41573E+00    0.30000E+00
   -0.24352E+00   -0.36874E+00    0.30000E+00
   -0.19134E+00   -0.46194E+00    0.30000E+00
   -0.17913E+00   -0.37815E+00    0.30000E+00
   -0.97545E-01   -0.49039E+00    0.30000E+00
   -0.95009E-01   -0.38868E+00    0.30000E+00
    0.30616E-16   -0.50000E+00    0.30000E+00
   -0.36060E-02   -0.39164E+00    0.30000E+00
    0.97545E-01   -0.49039E+00    0.30000E+00
    0.88386E-01   -0.38328E+00    0.30000E+00
    0.19134E+00   -0.46194E+00    0.30000E+00
    0.17742E+00   -0.36221E+00    0.30000E+00
    0.27779E+00   -0.41573E+00    0.30000E+00
    0.25667E+00   -0.33633E+00    0.30000E+00
    0.35355E+00   -0.35355E+00    0.30000E+00
    0.31562E+00   -0.31570E+00    0.30000E+00
    0.41573E+00   -0.27779E+00    0.30000E+00
    0.33591E+00   -0.25733E+00    0.30000E+00
    0.46194E+00   -0.19134E+00    0.30000E+00
    0.36202E+00   -0.17936E+00    0.30000E+00
    0.49039E+00   -0.97545E-01    0.30000E+00
    0.38480E+00   -0.91804E-01    0.30000E+00
    0.50000E+00    0.00000E+00    0.30000E+00
    0.40000E+00    0.00000E+00    0.30000E+00
    0.30000E+00    0.00000E+00    0.30000E+00
    0.28653E+00   -0.90270E-01    0.30000E+00
    0.20000E+00    0.00000E+00    0.30000E+00
    0.18905E+00   -0.92234E-01    0.30000E+00
    0.10000E+00    0.00000E+00    0.30000E+00
    0.90731E-01   -0.95183E-01    0.30000E+00
    0.00000E+00    0.00000E+00    0.30000E+00
   -0.95239E-02   -0.97881E-01    0.30000E+00
   -0.10000E+00    0.00000E+00    0.30000E+00
   -0.11346E+00   -0.10095E+00    0.30000E+00
   -0.20000E+00    0.00000E+00    0.30000E+00
   -0.23525E+00   -0.10876E+00    0.30000E+00
   -0.30000E+00    0.00000E+00    0.30000E+00
   -0.30752E+00   -0.63228E-01    0.30000E+00
   -0.21266E+00   -0.21028E+00    0.30000E+00
   -0.19116E+00   -0.29816E+00    0.30000E+00
   -0.10142E+00   -0.29488E+00    0.30000E+00
   -0.81469E-02   -0.29236E+00    0.30000E+00
    0.84662E-01   -0.28524E+00    0.30000E+00
    0.17455E+00   -0.27262E+00    0.30000E+00
    0.25887E+00   -0.25992E+00    0.30000E+00
    0.27142E+00   -0.17782E+00    0.30000E+00
    0.17981E+00   -0.18283E+00    0.30000E+00
    0.85671E-01   -0.18993E+00    0.30000E+00
   -0.11137E-01   -0.19497E+00    0.30000E+00
   -0.11013E+00   -0.19981E+00    0.30000E+00
   -0.50000E+00    0.00000E+00    0.20000E+00
   -0.49039E+00   -0.97545E-01    0.20000E+00
   -0.38609E+00   -0.80355E-01    0.20000E+00
   -0.40000E+00    0.00000E+00    0.20000E+00
   -0.46194E+00   -0.19134E+00    0.20000E+00
   -0.34973E+00   -0.15624E+00    0.20000E+00
   -0.41573E+00   -0.27779E+00    0.20000E+00
   -0.31176E+00   -0.23770E+00    0.20000E+00
   -0.35355E+00   -0.35355E+00    0.20000E+00
   -0.27369E+00   -0.31226E+00    0.20000E+00
   -0.27779E+00   -0.41573E+00    0.20000E+00
   -0.24351E+00   -0.36874E+00    0.20000E+00
   -0.19134E+00   -0.46194E+00    0.20000E+00
   -0.17916E+00   -0.37811E+00    0.20000E+00
   -0.97545E-01   -0.49039E+00    0.20000E+00
   -0.95033E-01   -0.38858E+00    0.20000E+00
    0.25266E-15   -0.50000E+00    0.20000E+00
   -0.36252E-02   -0.39148E+00    0.20000E+00
    0.97545E-01   -0.49039E+00    0.20000E+00
    0.88437E-01   -0.38304E+00    0.20000E+00
    0.19134E+00   -0.46194E+00    0.20000E+00
    0.17743E+00   -0.36215E+00    0.20000E+00
    0.27779E+00   -0.41573E+00    0.20000E+00
    0.25667E+00   -0.33629E+00    0.20000E+00
    0.35355E+00   -0.35355E+00    0.20000E+00
    0.31560E+00   -0.31569E+00    0.20000E+00
    0.41573E+00   -0.27779E+00    0.20000E+00
    0.33587E+00   -0.25733E+00    0.20000E+00
    0.46194E+00   -0.19134E+00    0.20000E+00
    0.36201E+00   -0.17937E+00    0.20000E+00
[...]
CELL_DATA        92
SCALARS cargas           int       1
LOOKUP_TABLE default
         1
         1
         1
         1
         1
         1
         1
         1
         1
         1
         1
         1
         1
         1
         1
         1
         1
         1
         1
         1
         1
         1
         1
         1
         1
         1
         1
         1
         1
         1
         1
         1
         1
         1
         1
         1
         1
         1
         1
         1
         1
         1
         1
         1
         1
         1
         1
         1
         1
         1
         1
         1
         1
         1
         1
         1
         1
         1
         1
         1
         1
         1
         1
         1
         1
         1
         1
         1
         1
         1
         1
         1
         1
         1
         1
         1
         1
         1
         1
         1
         1
         1
         1
         1
         1
         1
         1
         1
         1
         1
         1
         1
